 Gaussian 09, Revision B.01,
 Gaussian 09:  EM64L-G09RevB.01 12-Aug-2010

 ----------------------------------------------------------------------
 #p PBEPBE/gen gfinput gfprint SCF(maxcycle=512,conver=6) geom=check gu
 ess=read td(nstat=80,conver=2) pseudo=read
 ----------------------------------------------------------------------

 Au15
 ----
 Redundant internal coordinates taken from checkpoint file:
 ./check/Au15.chk
 Charge =  0 Multiplicity = 1

                         Standard orientation:
 ---------------------------------------------------------------------
 Center     Atomic      Atomic             Coordinates (Angstroms)
 Number     Number       Type             X           Y           Z
 ---------------------------------------------------------------------
      1         79           0        1.166335    0.830049    1.340354
      2         79           0        1.206824   -1.800336    0.327887
      3         79           0       -0.435764    0.113513   -0.821749
      4         79           0       -3.711766    1.468472   -2.335446
      5         79           0       -6.302972    0.403028    0.063895
      6         79           0       -4.499124   -1.148395    2.843910
      7         79           0       -1.471615   -2.555154   -1.830498
      8         79           0        1.848206   -1.322559   -2.588652
      9         79           0       -3.291926    0.030297    0.280291
     10         79           0        2.109579    2.087972   -1.289677
     11         79           0       -0.982116    2.956196    0.366893
     12         79           0       -0.959192   -0.931809    1.836989
     13         79           0        6.407060    0.305570    0.014874
     14         79           0        4.683647   -2.819188    0.511623
     15         79           0        4.195990    2.356546    1.306271
     16         16           0       -6.725858   -0.842330    2.051803
     17         16           0       -1.382787    1.373073   -2.780001
     18         16           0       -6.030914    1.787366   -1.860510
     19         16           0       -2.330615   -1.541959    3.734658
     20         16           0       -3.491074   -2.237221   -0.615740
     21         16           0       -2.864597    2.086035    1.527429
     22         16           0        0.316685   -2.982716   -3.339730
     23         16           0        0.755764    4.005271   -0.873760
     24         16           0        6.892587   -1.993865    0.272833
     25         16           0        5.918155    2.609408   -0.308972
     26         16           0        2.537077   -3.795115    0.635540
     27         16           0        3.498039    0.282338   -2.005951
     28         16           0        2.518141    2.037825    2.943680
     29          6           0       -2.093757   -0.084126    4.847665
     30          6           0       -7.129429   -2.530618    1.415408
     31          6           0       -6.926049    0.901233   -3.209161
     32          6           0       -1.234721    0.296707   -4.268264
     33          6           0       -4.702748   -2.123258   -2.000851
     34          6           0       -4.202035    3.278131    1.089609
     35          6           0        1.048034   -4.586819   -2.795139
     36          6           0        1.671004    5.012676    0.371435
     37          6           0        2.289819   -4.149425    2.432634
     38          6           0        7.573800   -2.101220    1.988926
     39          6           0        7.280818    3.497400    0.570823
     40          6           0        4.145413    0.873003   -3.632988
     41          6           0        3.209973    0.657439    3.963582
     42          1           0       -1.053665   -0.099453    5.204276
     43          1           0       -2.294364    0.853701    4.312960
     44          1           0       -2.780740   -0.192812    5.699520
     45          1           0       -7.282369   -3.184140    2.286340
     46          1           0       -8.059771   -2.465626    0.833263
     47          1           0       -6.313599   -2.925863    0.795686
     48          1           0       -0.160833    0.137537   -4.453367
     49          1           0       -1.724103   -0.675416   -4.113231
     50          1           0       -1.685632    0.820926   -5.123695
     51          1           0       -4.243070    3.449504    0.005307
     52          1           0        1.927922    4.419593    1.258413
     53          1           0        2.589100    5.386227   -0.104775
     54          1           0        1.026444    5.857733    0.654791
     55          1           0       -5.680368   -1.851843   -1.568543
     56          1           0       -4.763183   -3.106403   -2.490727
     57          1           0       -4.398479   -1.351673   -2.723951
     58          1           0       -8.000145    0.928625   -2.975841
     59          1           0       -6.588522   -0.138470   -3.304965
     60          1           0       -6.736850    1.443574   -4.146787
     61          1           0       -3.995626    4.224175    1.611523
     62          1           0       -5.158028    2.859256    1.439585
     63          1           0        2.983282   -4.951571    2.723570
     64          1           0        2.465216   -3.253648    3.041573
     65          1           0        7.669406   -3.165466    2.247711
     66          1           0        8.567844   -1.631788    1.984791
     67          1           0        6.922420   -1.593761    2.711131
     68          1           0        1.251806   -4.487352    2.563021
     69          1           0        4.685091    0.039134   -4.104972
     70          1           0        3.333375    1.218153   -4.285395
     71          1           0        4.843096    1.698000   -3.427136
     72          1           0        6.997900    4.556971    0.649870
     73          1           0        8.193832    3.403180   -0.034481
     74          1           0        7.447049    3.077693    1.570433
     75          1           0        1.954745   -4.760681   -3.392420
     76          1           0        0.309890   -5.374940   -3.003048
     77          1           0        1.298610   -4.571815   -1.726518
     78          1           0        2.392389    0.249753    4.575627
     79          1           0        3.993287    1.071000    4.615550
     80          1           0        3.626245   -0.130396    3.322173
 ---------------------------------------------------------------------

 SCF Done:  E(RPBE-PBE) =  -7725.06076025     A.U. after    1 cycles

 Excitation energies and oscillator strengths:

 Excited State   1:      Singlet-A      2.1574 eV  574.70 nm  f=0.0132  <S**2>=0.000
     305 ->306         0.70064
 This state for optimization and/or second-order correction.
 Total Energy, E(TD-HF/TD-KS) =  -7724.98147837
 Copying the excited state density for this state as the 1-particle RhoCI density.

 Excited State   2:      Singlet-A      2.2021 eV  563.04 nm  f=0.0118  <S**2>=0.000
     305 ->307         0.69945

 Excited State   3:      Singlet-A      2.5591 eV  484.49 nm  f=0.0331  <S**2>=0.000
     304 ->306         0.60236
     304 ->307         0.17783
     305 ->308        -0.25840

 Excited State   4:      Singlet-A      2.5867 eV  479.32 nm  f=0.0216  <S**2>=0.000
     303 ->306        -0.12469
     304 ->306         0.14811
     304 ->307         0.28377
     305 ->308         0.59753

 Excited State   5:      Singlet-A      2.6306 eV  471.31 nm  f=0.0178  <S**2>=0.000
     303 ->307         0.12390
     304 ->306        -0.24812
     304 ->307         0.58417
     305 ->308        -0.20061
     305 ->309        -0.12098

 Excited State   6:      Singlet-A      2.7159 eV  456.51 nm  f=0.0063  <S**2>=0.000
     303 ->306         0.34132
     304 ->307         0.10942
     305 ->309         0.57591
     305 ->311        -0.10811

 Excited State   7:      Singlet-A      2.7321 eV  453.81 nm  f=0.0097  <S**2>=0.000
     302 ->306         0.11600
     303 ->306         0.53732
     303 ->307        -0.23292
     304 ->307         0.11582
     305 ->309        -0.31082

 Excited State   8:      Singlet-A      2.8084 eV  441.48 nm  f=0.0013  <S**2>=0.000
     303 ->307         0.19448
     305 ->310         0.66786

 Excited State   9:      Singlet-A      2.8377 eV  436.91 nm  f=0.0142  <S**2>=0.000
     302 ->307         0.14069
     303 ->306         0.20341
     303 ->307         0.55591
     304 ->308        -0.23508
     305 ->310        -0.20059

 Excited State  10:      Singlet-A      2.9087 eV  426.26 nm  f=0.0042  <S**2>=0.000
     301 ->306        -0.24781
     302 ->306         0.54929
     304 ->308        -0.32302

 Excited State  11:      Singlet-A      2.9288 eV  423.33 nm  f=0.0040  <S**2>=0.000
     302 ->306         0.33371
     303 ->307         0.18228
     304 ->308         0.52987
     305 ->311         0.18921

 Excited State  12:      Singlet-A      2.9990 eV  413.42 nm  f=0.0039  <S**2>=0.000
     301 ->306         0.10206
     302 ->307        -0.25409
     304 ->309         0.61023
     305 ->311         0.11242
     305 ->312        -0.12197

 Excited State  13:      Singlet-A      3.0085 eV  412.11 nm  f=0.0062  <S**2>=0.000
     299 ->306         0.10632
     300 ->306        -0.15238
     301 ->306        -0.14115
     301 ->307         0.25539
     302 ->307         0.38564
     304 ->309         0.22995
     305 ->311         0.29563
     305 ->312         0.22731

 Excited State  14:      Singlet-A      3.0173 eV  410.91 nm  f=0.0018  <S**2>=0.000
     301 ->307        -0.17609
     302 ->307        -0.28764
     304 ->308        -0.12389
     304 ->309        -0.11754
     305 ->311         0.25671
     305 ->312         0.52134

 Excited State  15:      Singlet-A      3.0209 eV  410.42 nm  f=0.0330  <S**2>=0.000
     300 ->306         0.22607
     301 ->306         0.53153
     301 ->307         0.26261
     302 ->306         0.12054
     305 ->312         0.10761

 Excited State  16:      Singlet-A      3.0523 eV  406.20 nm  f=0.0138  <S**2>=0.000
     301 ->306        -0.19574
     301 ->307         0.52946
     302 ->307        -0.27663
     303 ->307         0.10266
     303 ->308        -0.22893

 Excited State  17:      Singlet-A      3.0654 eV  404.46 nm  f=0.0055  <S**2>=0.000
     299 ->306         0.18826
     300 ->306         0.62471
     301 ->306        -0.17973

 Excited State  18:      Singlet-A      3.0819 eV  402.29 nm  f=0.0103  <S**2>=0.000
     300 ->307        -0.15650
     303 ->308         0.11209
     304 ->309        -0.19073
     304 ->310        -0.11522
     305 ->309         0.12250
     305 ->311         0.45615
     305 ->312        -0.34328
     305 ->313        -0.14077

 Excited State  19:      Singlet-A      3.1241 eV  396.87 nm  f=0.0043  <S**2>=0.000
     299 ->306         0.12860
     299 ->307        -0.13890
     300 ->307         0.64585

 Excited State  20:      Singlet-A      3.1331 eV  395.72 nm  f=0.0118  <S**2>=0.000
     297 ->306        -0.12215
     299 ->306         0.51546
     300 ->306        -0.10392
     302 ->308         0.12261
     303 ->308        -0.34315
     304 ->310        -0.14069

 Excited State  21:      Singlet-A      3.1496 eV  393.65 nm  f=0.0136  <S**2>=0.000
     298 ->306         0.40155
     299 ->306         0.21279
     301 ->307         0.11390
     302 ->307        -0.12365
     303 ->308         0.42778
     304 ->310        -0.13644

 Excited State  22:      Singlet-A      3.1640 eV  391.86 nm  f=0.0063  <S**2>=0.000
     298 ->306         0.19690
     304 ->310         0.64659

 Excited State  23:      Singlet-A      3.1865 eV  389.09 nm  f=0.0075  <S**2>=0.000
     297 ->306         0.14113
     298 ->306        -0.14382
     299 ->306         0.11654
     299 ->307         0.61879

 Excited State  24:      Singlet-A      3.1887 eV  388.83 nm  f=0.0030  <S**2>=0.000
     297 ->306        -0.18186
     298 ->306         0.35641
     299 ->306        -0.15575
     299 ->307         0.13546
     303 ->308        -0.11168
     303 ->309         0.50917

 Excited State  25:      Singlet-A      3.2036 eV  387.02 nm  f=0.0027  <S**2>=0.000
     297 ->306         0.26554
     298 ->306        -0.26539
     299 ->306         0.18115
     299 ->307        -0.18204
     303 ->309         0.45383
     304 ->310         0.10502
     305 ->313         0.12991

 Excited State  26:      Singlet-A      3.2177 eV  385.32 nm  f=0.0040  <S**2>=0.000
     302 ->308         0.11138
     305 ->313         0.58913
     305 ->314         0.28934

 Excited State  27:      Singlet-A      3.2212 eV  384.91 nm  f=0.0128  <S**2>=0.000
     297 ->306         0.50562
     297 ->307         0.14287
     298 ->306         0.19821
     302 ->307         0.10490
     303 ->308        -0.16776
     305 ->314        -0.30287

 Excited State  28:      Singlet-A      3.2345 eV  383.32 nm  f=0.0054  <S**2>=0.000
     297 ->306         0.23959
     298 ->306         0.12044
     298 ->307         0.12913
     305 ->313        -0.22929
     305 ->314         0.53729

 Excited State  29:      Singlet-A      3.2734 eV  378.76 nm  f=0.0036  <S**2>=0.000
     295 ->306         0.15198
     296 ->306         0.33613
     297 ->307         0.20903
     298 ->307         0.50491
     302 ->308        -0.17449

 Excited State  30:      Singlet-A      3.2801 eV  377.99 nm  f=0.0017  <S**2>=0.000
     295 ->306         0.17397
     296 ->306         0.31489
     297 ->307         0.40260
     298 ->307        -0.34547
     301 ->308        -0.15265
     305 ->313        -0.12964

 Excited State  31:      Singlet-A      3.2975 eV  376.00 nm  f=0.0067  <S**2>=0.000
     296 ->306         0.44928
     296 ->307        -0.10665
     297 ->307        -0.39961
     298 ->307        -0.15802
     302 ->308        -0.19532

 Excited State  32:      Singlet-A      3.3007 eV  375.64 nm  f=0.0021  <S**2>=0.000
     295 ->306         0.63563
     296 ->306        -0.15408
     296 ->307        -0.14799
     297 ->307        -0.15844

 Excited State  33:      Singlet-A      3.3409 eV  371.11 nm  f=0.0116  <S**2>=0.000
     294 ->306        -0.29863
     296 ->307         0.45947
     302 ->308        -0.18359
     303 ->310        -0.18709
     304 ->311        -0.13621
     305 ->315        -0.25193

 Excited State  34:      Singlet-A      3.3478 eV  370.35 nm  f=0.0065  <S**2>=0.000
     294 ->306        -0.11477
     296 ->307         0.29765
     301 ->308         0.10631
     302 ->309        -0.10784
     304 ->311         0.28050
     305 ->315         0.50734

 Excited State  35:      Singlet-A      3.3525 eV  369.83 nm  f=0.0077  <S**2>=0.000
     294 ->306        -0.17915
     295 ->307         0.19199
     296 ->307         0.10074
     297 ->307        -0.11073
     301 ->308        -0.19970
     302 ->308         0.20444
     302 ->309        -0.21978
     303 ->310         0.40031
     304 ->311         0.12050
     305 ->315        -0.26096

 Excited State  36:      Singlet-A      3.3592 eV  369.09 nm  f=0.0038  <S**2>=0.000
     294 ->306         0.40425
     295 ->307        -0.35294
     296 ->307         0.19971
     301 ->308         0.22643
     303 ->310         0.17939
     304 ->311         0.13068
     305 ->315        -0.15993

 Excited State  37:      Singlet-A      3.3653 eV  368.42 nm  f=0.0067  <S**2>=0.000
     294 ->306         0.28914
     295 ->307         0.38480
     303 ->310        -0.35085
     304 ->311         0.23564
     304 ->312         0.11216
     305 ->315        -0.15675

 Excited State  38:      Singlet-A      3.3714 eV  367.75 nm  f=0.0074  <S**2>=0.000
     293 ->306         0.20468
     294 ->306         0.22271
     295 ->307         0.24170
     296 ->307         0.15233
     300 ->308        -0.11151
     302 ->309         0.31629
     303 ->310         0.24180
     304 ->311        -0.30398
     305 ->315         0.10698
     305 ->316         0.11853

 Excited State  39:      Singlet-A      3.3812 eV  366.69 nm  f=0.0130  <S**2>=0.000
     294 ->306        -0.11202
     295 ->307        -0.18508
     301 ->308        -0.16693
     302 ->309         0.53173
     304 ->311         0.29896

 Excited State  40:      Singlet-A      3.3887 eV  365.88 nm  f=0.0101  <S**2>=0.000
     293 ->306        -0.14147
     294 ->307        -0.10147
     295 ->307         0.18717
     296 ->307        -0.11870
     301 ->308         0.27266
     302 ->308        -0.12317
     302 ->309         0.14622
     303 ->310         0.21489
     304 ->312         0.44469
     305 ->316        -0.10767

 Excited State  41:      Singlet-A      3.3996 eV  364.70 nm  f=0.0292  <S**2>=0.000
     291 ->306        -0.10903
     292 ->307         0.10319
     293 ->306         0.19233
     295 ->307        -0.11976
     300 ->308         0.11610
     302 ->308         0.23185
     303 ->310        -0.10530
     304 ->311        -0.19609
     304 ->312         0.43272
     305 ->316         0.21068

 Excited State  42:      Singlet-A      3.4047 eV  364.15 nm  f=0.0066  <S**2>=0.000
     292 ->306         0.11513
     293 ->306         0.54210
     294 ->306        -0.10350
     296 ->307        -0.14934
     300 ->308         0.12188
     301 ->308         0.21964
     304 ->312        -0.10193
     305 ->316        -0.18287

 Excited State  43:      Singlet-A      3.4174 eV  362.81 nm  f=0.0249  <S**2>=0.000
     293 ->306        -0.22037
     300 ->308         0.34800
     301 ->308         0.28436
     301 ->309        -0.11914
     302 ->308         0.19663
     304 ->311        -0.11489
     304 ->312        -0.18936
     305 ->316         0.15422
     305 ->317         0.17395

 Excited State  44:      Singlet-A      3.4241 eV  362.09 nm  f=0.0036  <S**2>=0.000
     292 ->306        -0.22241
     294 ->307         0.46501
     305 ->316        -0.44216

 Excited State  45:      Singlet-A      3.4265 eV  361.84 nm  f=0.0246  <S**2>=0.000
     292 ->306         0.17024
     293 ->307        -0.15686
     294 ->307         0.45599
     302 ->308        -0.16805
     304 ->311         0.10417
     305 ->316         0.30994
     305 ->317         0.17534

 Excited State  46:      Singlet-A      3.4314 eV  361.32 nm  f=0.0097  <S**2>=0.000
     300 ->308        -0.41062
     301 ->308         0.11201
     302 ->308         0.12356
     305 ->317         0.49585

 Excited State  47:      Singlet-A      3.4389 eV  360.54 nm  f=0.0123  <S**2>=0.000
     292 ->306        -0.31532
     294 ->307        -0.11771
     300 ->308         0.32185
     301 ->308        -0.18621
     301 ->309         0.12086
     302 ->308        -0.13960
     305 ->317         0.37900

 Excited State  48:      Singlet-A      3.4510 eV  359.27 nm  f=0.0181  <S**2>=0.000
     292 ->306         0.48623
     299 ->308        -0.12937
     300 ->308         0.11077
     301 ->308        -0.16785
     304 ->311        -0.13459
     305 ->315         0.11020
     305 ->316        -0.19867
     305 ->317         0.17531
     305 ->318        -0.13534

 Excited State  49:      Singlet-A      3.4757 eV  356.72 nm  f=0.0014  <S**2>=0.000
     292 ->306         0.11429
     293 ->307         0.59087
     299 ->308         0.16986
     301 ->309         0.24191

 Excited State  50:      Singlet-A      3.4791 eV  356.37 nm  f=0.0263  <S**2>=0.000
     291 ->306        -0.16540
     293 ->307        -0.18287
     299 ->308        -0.12983
     301 ->309         0.55083
     305 ->318         0.24859

 Excited State  51:      Singlet-A      3.5025 eV  353.98 nm  f=0.0071  <S**2>=0.000
     290 ->306         0.12403
     299 ->308         0.26790
     301 ->309        -0.21989
     305 ->316        -0.10669
     305 ->318         0.54168

 Excited State  52:      Singlet-A      3.5054 eV  353.69 nm  f=0.0070  <S**2>=0.000
     291 ->306         0.46088
     292 ->307         0.39262
     299 ->308        -0.21165
     305 ->318         0.17767

 Excited State  53:      Singlet-A      3.5217 eV  352.06 nm  f=0.0166  <S**2>=0.000
     291 ->306         0.28765
     293 ->307        -0.16982
     299 ->308         0.47522
     300 ->309         0.13654
     301 ->309         0.15198
     304 ->313        -0.10790
     305 ->318        -0.14661

 Excited State  54:      Singlet-A      3.5269 eV  351.53 nm  f=0.0233  <S**2>=0.000
     290 ->306        -0.22888
     291 ->306        -0.27761
     291 ->307        -0.13103
     292 ->307         0.44292
     299 ->308         0.15847
     300 ->309         0.15914
     302 ->310        -0.17442
     303 ->312        -0.10832

 Excited State  55:      Singlet-A      3.5382 eV  350.41 nm  f=0.0169  <S**2>=0.000
     290 ->306         0.60061
     291 ->307        -0.12522
     292 ->307         0.16175
     303 ->311        -0.17303
     305 ->318        -0.12001

 Excited State  56:      Singlet-A      3.5469 eV  349.56 nm  f=0.0026  <S**2>=0.000
     299 ->308        -0.13893
     300 ->309         0.64241
     304 ->313         0.11513

 Excited State  57:      Singlet-A      3.5544 eV  348.82 nm  f=0.0221  <S**2>=0.000
     291 ->307        -0.17257
     302 ->310         0.62373
     303 ->311        -0.11997
     303 ->312        -0.11906

 Excited State  58:      Singlet-A      3.5712 eV  347.18 nm  f=0.0022  <S**2>=0.000
     291 ->307        -0.23833
     297 ->308         0.15446
     298 ->308         0.35158
     303 ->311         0.48699
     304 ->313         0.10646

 Excited State  59:      Singlet-A      3.5798 eV  346.35 nm  f=0.0085  <S**2>=0.000
     290 ->306         0.12803
     290 ->307        -0.10519
     291 ->307         0.35122
     297 ->308        -0.10052
     298 ->308        -0.15707
     303 ->311         0.34524
     303 ->312        -0.22964
     304 ->313        -0.29572

 Excited State  60:      Singlet-A      3.5814 eV  346.19 nm  f=0.0021  <S**2>=0.000
     289 ->306         0.17923
     291 ->307         0.23398
     297 ->308        -0.21059
     303 ->312        -0.22584
     304 ->313         0.49847

 Excited State  61:      Singlet-A      3.5887 eV  345.49 nm  f=0.0113  <S**2>=0.000
     289 ->306        -0.20931
     291 ->307         0.10363
     297 ->308        -0.24767
     298 ->308         0.45903
     299 ->309         0.15440
     303 ->311        -0.18148
     304 ->313        -0.16781
     304 ->314        -0.15669

 Excited State  62:      Singlet-A      3.5923 eV  345.14 nm  f=0.0017  <S**2>=0.000
     289 ->306         0.43569
     290 ->307        -0.26935
     291 ->307         0.16291
     297 ->308         0.25465
     298 ->308         0.23360
     299 ->309        -0.10611
     303 ->312         0.19474
     304 ->314        -0.12375

 Excited State  63:      Singlet-A      3.5982 eV  344.57 nm  f=0.0032  <S**2>=0.000
     289 ->306         0.21744
     297 ->308        -0.16194
     304 ->313        -0.23570
     304 ->314         0.56963

 Excited State  64:      Singlet-A      3.6041 eV  344.00 nm  f=0.0065  <S**2>=0.000
     289 ->306        -0.24145
     289 ->307        -0.11365
     291 ->307         0.21616
     297 ->308         0.42577
     303 ->311        -0.14774
     303 ->312        -0.26829
     304 ->314         0.20872

 Excited State  65:      Singlet-A      3.6221 eV  342.30 nm  f=0.0405  <S**2>=0.000
     287 ->306        -0.15139
     289 ->306        -0.20448
     291 ->307         0.19350
     292 ->307         0.12684
     295 ->308         0.13745
     299 ->309         0.16975
     302 ->310         0.11486
     303 ->312         0.45623
     304 ->314         0.16287

 Excited State  66:      Singlet-A      3.6246 eV  342.06 nm  f=0.0112  <S**2>=0.000
     288 ->306        -0.30923
     289 ->306         0.10489
     289 ->307        -0.27980
     290 ->307         0.46038
     291 ->307         0.12718

 Excited State  67:      Singlet-A      3.6373 eV  340.86 nm  f=0.0025  <S**2>=0.000
     287 ->306         0.11433
     289 ->306         0.14051
     297 ->308         0.13914
     298 ->309        -0.15499
     299 ->309         0.42202
     301 ->310         0.41525
     305 ->319         0.16392

 Excited State  68:      Singlet-A      3.6417 eV  340.46 nm  f=0.0073  <S**2>=0.000
     301 ->310        -0.10663
     305 ->319         0.65570

 Excited State  69:      Singlet-A      3.6503 eV  339.66 nm  f=0.0031  <S**2>=0.000
     288 ->306        -0.30236
     289 ->307         0.23232
     298 ->309         0.14664
     299 ->309        -0.27421
     301 ->310         0.43814

 Excited State  70:      Singlet-A      3.6554 eV  339.18 nm  f=0.0179  <S**2>=0.000
     288 ->306         0.35390
     289 ->307        -0.34634
     295 ->308         0.12978
     296 ->308        -0.20315
     298 ->309         0.18354
     299 ->309        -0.20947
     301 ->310         0.22482

 Excited State  71:      Singlet-A      3.6600 eV  338.75 nm  f=0.0073  <S**2>=0.000
     287 ->306        -0.17402
     288 ->306         0.19696
     290 ->307         0.10149
     295 ->308        -0.22568
     296 ->308         0.54514
     301 ->310         0.14674

 Excited State  72:      Singlet-A      3.6653 eV  338.26 nm  f=0.0230  <S**2>=0.000
     288 ->306         0.20818
     288 ->307        -0.24095
     289 ->307         0.41485
     290 ->307         0.29862
     291 ->307         0.10666
     295 ->308         0.20166

 Excited State  73:      Singlet-A      3.6861 eV  336.36 nm  f=0.0018  <S**2>=0.000
     287 ->306         0.48349
     290 ->307        -0.10733
     295 ->308         0.32020
     296 ->308         0.25812
     298 ->309         0.11366

 Excited State  74:      Singlet-A      3.6916 eV  335.86 nm  f=0.0112  <S**2>=0.000
     287 ->306        -0.21741
     294 ->308         0.14318
     295 ->308         0.40739
     297 ->309        -0.17199
     298 ->309        -0.34873
     299 ->309        -0.11044
     304 ->315        -0.14640

 Excited State  75:      Singlet-A      3.6988 eV  335.20 nm  f=0.0200  <S**2>=0.000
     287 ->306        -0.27860
     288 ->307         0.17352
     295 ->308         0.19307
     297 ->309         0.17223
     298 ->309         0.39600
     299 ->309         0.18097
     304 ->315        -0.10307
     305 ->320         0.17553

 Excited State  76:      Singlet-A      3.7106 eV  334.14 nm  f=0.0145  <S**2>=0.000
     285 ->306         0.11460
     286 ->306        -0.34273
     288 ->307        -0.16687
     297 ->309        -0.13926
     300 ->310         0.51136

 Excited State  77:      Singlet-A      3.7136 eV  333.87 nm  f=0.0060  <S**2>=0.000
     286 ->306         0.42302
     286 ->307         0.10513
     287 ->306         0.11695
     288 ->307         0.28130
     297 ->309        -0.10147
     300 ->310         0.38404

 Excited State  78:      Singlet-A      3.7213 eV  333.17 nm  f=0.0068  <S**2>=0.000
     294 ->308         0.13051
     297 ->309         0.11907
     302 ->311         0.12643
     304 ->315         0.58070
     305 ->321        -0.17980

 Excited State  79:      Singlet-A      3.7260 eV  332.76 nm  f=0.0023  <S**2>=0.000
     286 ->306        -0.10295
     294 ->308         0.21484
     297 ->309         0.47811

 The electronic state is 1-A.
 Alpha  occ. eigenvalues --  -88.08042 -88.07821 -88.07801 -88.07794 -88.07733
 Alpha  occ. eigenvalues --  -88.07710 -88.07561 -88.07545 -88.07438 -88.07212
 Alpha  occ. eigenvalues --  -88.07161 -88.07137 -88.06529  -9.93137  -9.92763
 Alpha  occ. eigenvalues --   -9.92711  -9.92661  -9.92433  -9.92430  -9.92391
 Alpha  occ. eigenvalues --   -9.92081  -9.92071  -9.91820  -9.91732  -9.91683
 Alpha  occ. eigenvalues --   -9.91573  -7.70122  -7.69913  -7.69877  -7.69866
 Alpha  occ. eigenvalues --   -7.69840  -7.69654  -7.69571  -7.69548  -7.69375
 Alpha  occ. eigenvalues --   -7.69262  -7.69205  -7.69066  -7.68457  -5.72349
 Alpha  occ. eigenvalues --   -5.72122  -5.72096  -5.72083  -5.72054  -5.71959
 Alpha  occ. eigenvalues --   -5.71873  -5.71796  -5.71774  -5.71747  -5.71710
 Alpha  occ. eigenvalues --   -5.71667  -5.71654  -5.71620  -5.71610  -5.71504
 Alpha  occ. eigenvalues --   -5.71479  -5.71475  -5.71458  -5.71438  -5.71408
 Alpha  occ. eigenvalues --   -5.71399  -5.71382  -5.71316  -5.71299  -5.71237
 Alpha  occ. eigenvalues --   -5.71233  -5.71169  -5.71141  -5.71092  -5.71049
 Alpha  occ. eigenvalues --   -5.70923  -5.70920  -5.70825  -5.70762  -5.70703
 Alpha  occ. eigenvalues --   -5.70621  -5.70340  -5.69977  -4.02949  -4.02796
 Alpha  occ. eigenvalues --   -4.02548  -4.02529  -4.02352  -4.02297  -4.02268
 Alpha  occ. eigenvalues --   -4.02193  -4.02090  -4.02047  -4.02043  -4.01870
 Alpha  occ. eigenvalues --   -4.01830  -4.01705  -4.01329  -2.21243  -2.21091
 Alpha  occ. eigenvalues --   -2.20840  -2.20685  -2.20654  -2.20501  -2.20478
 Alpha  occ. eigenvalues --   -2.20430  -2.20389  -2.20310  -2.20227  -2.19873
 Alpha  occ. eigenvalues --   -2.19489  -2.19406  -2.19126  -2.19113  -2.18976
 Alpha  occ. eigenvalues --   -2.18929  -2.18885  -2.18758  -2.18742  -2.18660
 Alpha  occ. eigenvalues --   -2.18623  -2.18545  -2.18508  -2.18497  -2.18372
 Alpha  occ. eigenvalues --   -2.18357  -2.18292  -2.18279  -2.18254  -2.18231
 Alpha  occ. eigenvalues --   -2.18184  -2.18181  -2.18118  -2.18117  -2.18049
 Alpha  occ. eigenvalues --   -2.18042  -2.18035  -2.17959  -2.17937  -2.17911
 Alpha  occ. eigenvalues --   -2.17905  -2.17652  -2.17590  -0.71692  -0.71514
 Alpha  occ. eigenvalues --   -0.71212  -0.71178  -0.71152  -0.70808  -0.70777
 Alpha  occ. eigenvalues --   -0.70716  -0.70654  -0.70423  -0.70316  -0.70071
 Alpha  occ. eigenvalues --   -0.69801  -0.59152  -0.59125  -0.58701  -0.58557
 Alpha  occ. eigenvalues --   -0.58337  -0.58151  -0.57994  -0.57957  -0.57628
 Alpha  occ. eigenvalues --   -0.57347  -0.57256  -0.56939  -0.56845  -0.41193
 Alpha  occ. eigenvalues --   -0.40928  -0.40778  -0.40682  -0.40624  -0.40426
 Alpha  occ. eigenvalues --   -0.40303  -0.40085  -0.39968  -0.39922  -0.39580
 Alpha  occ. eigenvalues --   -0.39341  -0.39127  -0.39059  -0.38960  -0.38927
 Alpha  occ. eigenvalues --   -0.38791  -0.38753  -0.38709  -0.38633  -0.38452
 Alpha  occ. eigenvalues --   -0.38390  -0.38373  -0.38288  -0.38134  -0.38019
 Alpha  occ. eigenvalues --   -0.37318  -0.36986  -0.36860  -0.36768  -0.36686
 Alpha  occ. eigenvalues --   -0.36565  -0.36493  -0.36291  -0.35987  -0.35963
 Alpha  occ. eigenvalues --   -0.35791  -0.35673  -0.35597  -0.35426  -0.34611
 Alpha  occ. eigenvalues --   -0.34254  -0.33893  -0.33574  -0.33439  -0.33235
 Alpha  occ. eigenvalues --   -0.32741  -0.32561  -0.32183  -0.32122  -0.31956
 Alpha  occ. eigenvalues --   -0.31887  -0.31616  -0.31362  -0.31271  -0.31188
 Alpha  occ. eigenvalues --   -0.30752  -0.30680  -0.30495  -0.30426  -0.30122
 Alpha  occ. eigenvalues --   -0.30077  -0.29860  -0.29598  -0.29430  -0.29333
 Alpha  occ. eigenvalues --   -0.29186  -0.28921  -0.28857  -0.28601  -0.28442
 Alpha  occ. eigenvalues --   -0.28267  -0.28194  -0.28104  -0.27925  -0.27873
 Alpha  occ. eigenvalues --   -0.27847  -0.27742  -0.27533  -0.27482  -0.27452
 Alpha  occ. eigenvalues --   -0.27240  -0.27082  -0.26942  -0.26858  -0.26743
 Alpha  occ. eigenvalues --   -0.26709  -0.26648  -0.26494  -0.26460  -0.26353
 Alpha  occ. eigenvalues --   -0.26205  -0.26057  -0.25995  -0.25910  -0.25764
 Alpha  occ. eigenvalues --   -0.25707  -0.25630  -0.25560  -0.25452  -0.25445
 Alpha  occ. eigenvalues --   -0.25310  -0.25283  -0.25224  -0.25081  -0.25041
 Alpha  occ. eigenvalues --   -0.24926  -0.24865  -0.24765  -0.24686  -0.24559
 Alpha  occ. eigenvalues --   -0.24417  -0.24174  -0.23975  -0.23897  -0.23521
 Alpha  occ. eigenvalues --   -0.23494  -0.23262  -0.23093  -0.23026  -0.22940
 Alpha  occ. eigenvalues --   -0.22852  -0.22711  -0.22512  -0.22381  -0.22148
 Alpha  occ. eigenvalues --   -0.22045  -0.21792  -0.21671  -0.21530  -0.21284
 Alpha  occ. eigenvalues --   -0.21198  -0.20944  -0.20877  -0.20617  -0.20353
 Alpha  occ. eigenvalues --   -0.20057  -0.19733  -0.19068  -0.18327  -0.16973
 Alpha virt. eigenvalues --   -0.09283  -0.09026  -0.07839  -0.07386  -0.06774
 Alpha virt. eigenvalues --   -0.06028  -0.05903  -0.05267  -0.05192  -0.04743
 Alpha virt. eigenvalues --   -0.04469  -0.04385  -0.04234  -0.03661  -0.03425

 Mulliken atomic charges:
              1
     1  Au   0.194493
     2  Au   0.144666
     3  Au   1.898983
     4  Au  -0.661612
     5  Au  -0.470184
     6  Au  -0.363333
     7  Au  -0.643947
     8  Au  -0.635566
     9  Au   0.083218
    10  Au  -0.565770
    11  Au  -0.641839
    12  Au  -0.268672
    13  Au  -0.303181
    14  Au  -0.390413
    15  Au  -0.388612
    16  S    0.140821
    17  S    0.198429
    18  S    0.155177
    19  S    0.147108
    20  S    0.218887
    21  S    0.224592
    22  S    0.162495
    23  S    0.200563
    24  S    0.091421
    25  S    0.122931
    26  S    0.077185
    27  S    0.181677
    28  S    0.117974
    29  C   -0.511701
    30  C   -0.505851
    31  C   -0.501208
    32  C   -0.531843
    33  C   -0.522959
    34  C   -0.526533
    35  C   -0.512736
    36  C   -0.513494
    37  C   -0.506070
    38  C   -0.493432
    39  C   -0.500385
    40  C   -0.512776
    41  C   -0.511528
    42  H    0.188032
    43  H    0.224339
    44  H    0.184287
    45  H    0.189228
    46  H    0.179626
    47  H    0.210483
    48  H    0.207982
    49  H    0.208351
    50  H    0.181428
    51  H    0.212161
    52  H    0.217087
    53  H    0.190490
    54  H    0.187308
    55  H    0.197458
    56  H    0.190178
    57  H    0.206955
    58  H    0.186876
    59  H    0.183121
    60  H    0.192317
    61  H    0.188827
    62  H    0.206691
    63  H    0.181968
    64  H    0.204075
    65  H    0.185234
    66  H    0.181562
    67  H    0.190986
    68  H    0.203691
    69  H    0.189409
    70  H    0.200081
    71  H    0.202352
    72  H    0.188297
    73  H    0.184158
    74  H    0.194763
    75  H    0.187944
    76  H    0.186439
    77  H    0.222355
    78  H    0.195199
    79  H    0.181568
    80  H    0.209718
 Sum of Mulliken atomic charges =   0.00000

 Dipole moment (field-independent basis, Debye):
    X=              1.1272    Y=             -1.1235    Z=              0.4869  Tot=              1.6643
 Quadrupole moment (field-independent basis, Debye-Ang):
   XX=           -563.3795   YY=           -593.4082   ZZ=           -581.3811
   XY=             17.8509   XZ=             31.4512   YZ=              2.9857

 Normal termination of Gaussian 09 at Thu Mar 26 11:19:33 2015.
